 Entering Gaussian System, Link 0=g09
 Input=/home/guest/hcn-f.com
 Output=/home/guest/hcn-f.log
 Initial command:
 /home/guest/.softwares/g09/l1.exe "/home/guest/Gau-3030.inp" -scrdir="/home/guest/"
 Entering Link 1 = /home/guest/.softwares/g09/l1.exe PID=      3035.
  
 Copyright (c) 1988,1990,1992,1993,1995,1998,2003,2009,2013,
            Gaussian, Inc.  All Rights Reserved.
  
 This is part of the Gaussian(R) 09 program.  It is based on
 the Gaussian(R) 03 system (copyright 2003, Gaussian, Inc.),
 the Gaussian(R) 98 system (copyright 1998, Gaussian, Inc.),
 the Gaussian(R) 94 system (copyright 1995, Gaussian, Inc.),
 the Gaussian 92(TM) system (copyright 1992, Gaussian, Inc.),
 the Gaussian 90(TM) system (copyright 1990, Gaussian, Inc.),
 the Gaussian 88(TM) system (copyright 1988, Gaussian, Inc.),
 the Gaussian 86(TM) system (copyright 1986, Carnegie Mellon
 University), and the Gaussian 82(TM) system (copyright 1983,
 Carnegie Mellon University). Gaussian is a federally registered
 trademark of Gaussian, Inc.
  
 This software contains proprietary and confidential information,
 including trade secrets, belonging to Gaussian, Inc.
  
 This software is provided under written license and may be
 used, copied, transmitted, or stored only in accord with that
 written license.
  
 The following legend is applicable only to US Government
 contracts under FAR:
  
                    RESTRICTED RIGHTS LEGEND
  
 Use, reproduction and disclosure by the US Government is
 subject to restrictions as set forth in subparagraphs (a)
 and (c) of the Commercial Computer Software - Restricted
 Rights clause in FAR 52.227-19.
  
 Gaussian, Inc.
 340 Quinnipiac St., Bldg. 40, Wallingford CT 06492
  
  
 ---------------------------------------------------------------
 Warning -- This program may not be used in any manner that
 competes with the business of Gaussian, Inc. or will provide
 assistance to any competitor of Gaussian, Inc.  The licensee
 of this program is prohibited from giving any competitor of
 Gaussian, Inc. access to this program.  By using this program,
 the user acknowledges that Gaussian, Inc. is engaged in the
 business of creating and licensing software in the field of
 computational chemistry and represents and warrants to the
 licensee that it is not a competitor of Gaussian, Inc. and that
 it will not use this program in any manner prohibited above.
 ---------------------------------------------------------------
  

 Cite this work as:
 Gaussian 09, Revision D.01,
 M. J. Frisch, G. W. Trucks, H. B. Schlegel, G. E. Scuseria, 
 M. A. Robb, J. R. Cheeseman, G. Scalmani, V. Barone, B. Mennucci, 
 G. A. Petersson, H. Nakatsuji, M. Caricato, X. Li, H. P. Hratchian, 
 A. F. Izmaylov, J. Bloino, G. Zheng, J. L. Sonnenberg, M. Hada, 
 M. Ehara, K. Toyota, R. Fukuda, J. Hasegawa, M. Ishida, T. Nakajima, 
 Y. Honda, O. Kitao, H. Nakai, T. Vreven, J. A. Montgomery, Jr., 
 J. E. Peralta, F. Ogliaro, M. Bearpark, J. J. Heyd, E. Brothers, 
 K. N. Kudin, V. N. Staroverov, T. Keith, R. Kobayashi, J. Normand, 
 K. Raghavachari, A. Rendell, J. C. Burant, S. S. Iyengar, J. Tomasi, 
 M. Cossi, N. Rega, J. M. Millam, M. Klene, J. E. Knox, J. B. Cross, 
 V. Bakken, C. Adamo, J. Jaramillo, R. Gomperts, R. E. Stratmann, 
 O. Yazyev, A. J. Austin, R. Cammi, C. Pomelli, J. W. Ochterski, 
 R. L. Martin, K. Morokuma, V. G. Zakrzewski, G. A. Voth, 
 P. Salvador, J. J. Dannenberg, S. Dapprich, A. D. Daniels, 
 O. Farkas, J. B. Foresman, J. V. Ortiz, J. Cioslowski, 
 and D. J. Fox, Gaussian, Inc., Wallingford CT, 2013.
 
 ******************************************
 Gaussian 09:  EM64L-G09RevD.01 24-Apr-2013
                 1-May-2018 
 ******************************************
 %chk=hcn-f.chk
 ------------------------------------
 # freq b3lyp/6-31g geom=connectivity
 ------------------------------------
 1/10=4,30=1,38=1,57=2/1,3;
 2/12=2,17=6,18=5,40=1/2;
 3/5=1,6=6,11=2,16=1,25=1,30=1,71=2,74=-5,140=1/1,2,3;
 4//1;
 5/5=2,38=5,98=1/2;
 8/6=4,10=90,11=11/1;
 11/6=1,8=1,9=11,15=111,16=1/1,2,10;
 10/6=1/2;
 6/7=2,8=2,9=2,10=2,18=1,28=1/1;
 7/8=1,10=1,25=1/1,2,3,16;
 1/10=4,30=1/3;
 99//99;
 -------------------
 Title Card Required
 -------------------
 Symbolic Z-matrix:
 Charge =  0 Multiplicity = 1
 C                    -2.70886   0.16456   0. 
 H                    -3.77886   0.16456   0. 
 N                    -1.56226   0.16456  0. 
 

 GradGradGradGradGradGradGradGradGradGradGradGradGradGradGradGradGradGrad
 Berny optimization.
 Initialization pass.
 Trust Radius=3.00D-01 FncErr=1.00D-07 GrdErr=1.00D-07
 Number of steps in this run=      2 maximum allowed number of steps=      2.
 GradGradGradGradGradGradGradGradGradGradGradGradGradGradGradGradGradGrad

                          Input orientation:                          
 ---------------------------------------------------------------------
 Center     Atomic      Atomic             Coordinates (Angstroms)
 Number     Number       Type             X           Y           Z
 ---------------------------------------------------------------------
      1          6           0       -2.708861    0.164557    0.000000
      2          1           0       -3.778861    0.164557    0.000000
      3          7           0       -1.562261    0.164557    0.000000
 ---------------------------------------------------------------------
                    Distance matrix (angstroms):
                    1          2          3
     1  C    0.000000
     2  H    1.070000   0.000000
     3  N    1.146600   2.216600   0.000000
 Stoichiometry    CHN
 Framework group  C*V[C*(HCN)]
 Deg. of freedom     2
 Full point group                 C*V     NOp   4
 Largest Abelian subgroup         C2V     NOp   4
 Largest concise Abelian subgroup C1      NOp   1
                         Standard orientation:                         
 ---------------------------------------------------------------------
 Center     Atomic      Atomic             Coordinates (Angstroms)
 Number     Number       Type             X           Y           Z
 ---------------------------------------------------------------------
      1          6           0        0.000000    0.000000   -0.496871
      2          1           0        0.000000    0.000000   -1.566871
      3          7           0        0.000000    0.000000    0.649729
 ---------------------------------------------------------------------
 Rotational constants (GHZ):      0.0000000     44.8885628     44.8885628
 Standard basis: 6-31G (6D, 7F)
 There are    12 symmetry adapted cartesian basis functions of A1  symmetry.
 There are     0 symmetry adapted cartesian basis functions of A2  symmetry.
 There are     4 symmetry adapted cartesian basis functions of B1  symmetry.
 There are     4 symmetry adapted cartesian basis functions of B2  symmetry.
 There are    12 symmetry adapted basis functions of A1  symmetry.
 There are     0 symmetry adapted basis functions of A2  symmetry.
 There are     4 symmetry adapted basis functions of B1  symmetry.
 There are     4 symmetry adapted basis functions of B2  symmetry.
    20 basis functions,    48 primitive gaussians,    20 cartesian basis functions
     7 alpha electrons        7 beta electrons
       nuclear repulsion energy        24.0222655492 Hartrees.
 NAtoms=    3 NActive=    3 NUniq=    3 SFac= 1.00D+00 NAtFMM=   60 NAOKFM=F Big=F
 Integral buffers will be    131072 words long.
 Raffenetti 2 integral format.
 Two-electron integral symmetry is turned on.
 One-electron integrals computed using PRISM.
 NBasis=    20 RedAO= T EigKep=  9.88D-03  NBF=    12     0     4     4
 NBsUse=    20 1.00D-06 EigRej= -1.00D+00 NBFU=    12     0     4     4
 ExpMin= 1.61D-01 ExpMax= 4.17D+03 ExpMxC= 6.27D+02 IAcc=1 IRadAn=         1 AccDes= 0.00D+00
 Harris functional with IExCor=  402 and IRadAn=       1 diagonalized for initial guess.
 HarFok:  IExCor=  402 AccDes= 0.00D+00 IRadAn=         1 IDoV= 1 UseB2=F ITyADJ=14
 ICtDFT=  3500011 ScaDFX=  1.000000  1.000000  1.000000  1.000000
 FoFCou: FMM=F IPFlag=           0 FMFlag=      100000 FMFlg1=           0
         NFxFlg=           0 DoJE=T BraDBF=F KetDBF=T FulRan=T
         wScrn=  0.000000 ICntrl=     500 IOpCl=  0 I1Cent=   200000004 NGrid=           0
         NMat0=    1 NMatS0=      1 NMatT0=    0 NMatD0=    1 NMtDS0=    0 NMtDT0=    0
 Petite list used in FoFCou.
 Initial guess orbital symmetries:
       Occupied  (SG) (SG) (SG) (SG) (SG) (PI) (PI)
       Virtual   (PI) (PI) (SG) (SG) (PI) (PI) (SG) (SG) (PI) (PI)
                 (SG) (SG) (SG)
 The electronic state of the initial guess is 1-SG.
 Keep R1 ints in memory in symmetry-blocked form, NReq=902746.
 Requested convergence on RMS density matrix=1.00D-08 within 128 cycles.
 Requested convergence on MAX density matrix=1.00D-06.
 Requested convergence on             energy=1.00D-06.
 No special actions if energy rises.
 Integral accuracy reduced to 1.0D-05 until final iterations.
 Initial convergence to 1.0D-05 achieved.  Increase integral accuracy.
 SCF Done:  E(RB3LYP) =  -93.3913665412     A.U. after   11 cycles
            NFock= 11  Conv=0.69D-08     -V/T= 2.0054
 DoSCS=F DFT=T ScalE2(SS,OS)=  1.000000  1.000000
 Range of M.O.s used for correlation:     1    20
 NBasis=    20 NAE=     7 NBE=     7 NFC=     0 NFV=     0
 NROrb=     20 NOA=     7 NOB=     7 NVA=    13 NVB=    13
 Symmetrizing basis deriv contribution to polar:
 IMax=3 JMax=2 DiffMx= 0.00D+00
 G2DrvN: will do     4 centers at a time, making    1 passes.
 Calling FoFCou, ICntrl=  3107 FMM=F I1Cent=   0 AccDes= 0.00D+00.
 End of G2Drv F.D. properties file   721 does not exist.
 End of G2Drv F.D. properties file   722 does not exist.
 End of G2Drv F.D. properties file   788 does not exist.
          IDoAtm=111
          Differentiating once with respect to electric field.
                with respect to dipole field.
          Differentiating once with respect to nuclear coordinates.
 Keep R1 ints in memory in symmetry-blocked form, NReq=881974.
          There are    12 degrees of freedom in the 1st order CPHF.  IDoFFX=6 NUNeed=     3.
      9 vectors produced by pass  0 Test12= 7.58D-16 8.33D-09 XBig12= 2.23D+01 3.06D+00.
 AX will form     9 AO Fock derivatives at one time.
      9 vectors produced by pass  1 Test12= 7.58D-16 8.33D-09 XBig12= 1.21D+01 1.51D+00.
      9 vectors produced by pass  2 Test12= 7.58D-16 8.33D-09 XBig12= 1.28D-01 1.76D-01.
      9 vectors produced by pass  3 Test12= 7.58D-16 8.33D-09 XBig12= 4.92D-05 2.96D-03.
      9 vectors produced by pass  4 Test12= 7.58D-16 8.33D-09 XBig12= 2.62D-08 5.70D-05.
      4 vectors produced by pass  5 Test12= 7.58D-16 8.33D-09 XBig12= 1.39D-11 1.57D-06.
      1 vectors produced by pass  6 Test12= 7.58D-16 8.33D-09 XBig12= 4.64D-15 3.54D-08.
 InvSVY:  IOpt=1 It=  1 EMax= 4.44D-16
 Solved reduced A of dimension    50 with     9 vectors.
 Isotropic polarizability for W=    0.000000       11.17 Bohr**3.
 End of Minotr F.D. properties file   721 does not exist.
 End of Minotr F.D. properties file   722 does not exist.
 End of Minotr F.D. properties file   788 does not exist.

 **********************************************************************

            Population analysis using the SCF density.

 **********************************************************************

 Orbital symmetries:
       Occupied  (SG) (SG) (SG) (SG) (SG) (PI) (PI)
       Virtual   (PI) (PI) (SG) (SG) (PI) (PI) (SG) (SG) (PI) (PI)
                 (SG) (SG) (SG)
 The electronic state is 1-SG.
 Alpha  occ. eigenvalues --  -14.36998 -10.24410  -0.95372  -0.60622  -0.37434
 Alpha  occ. eigenvalues --   -0.37091  -0.37091
 Alpha virt. eigenvalues --    0.02040   0.02040   0.08086   0.27938   0.52105
 Alpha virt. eigenvalues --    0.52105   0.65641   0.72254   0.77136   0.77136
 Alpha virt. eigenvalues --    0.83480   1.11909   1.56510
          Condensed to atoms (all electrons):
               1          2          3
     1  C    4.894860   0.326388   0.802548
     2  H    0.326388   0.434373  -0.014907
     3  N    0.802548  -0.014907   6.442710
 Mulliken charges:
               1
     1  C   -0.023796
     2  H    0.254146
     3  N   -0.230351
 Sum of Mulliken charges =   0.00000
 Mulliken charges with hydrogens summed into heavy atoms:
               1
     1  C    0.230351
     3  N   -0.230351
 APT charges:
               1
     1  C   -0.092787
     2  H    0.274320
     3  N   -0.181533
 Sum of APT charges =   0.00000
 APT charges with hydrogens summed into heavy atoms:
               1
     1  C    0.181533
     3  N   -0.181533
 Electronic spatial extent (au):  <R**2>=             48.9673
 Charge=              0.0000 electrons
 Dipole moment (field-independent basis, Debye):
    X=              0.0000    Y=              0.0000    Z=             -2.9337  Tot=              2.9337
 Quadrupole moment (field-independent basis, Debye-Ang):
   XX=            -11.3567   YY=            -11.3567   ZZ=            -10.0485
   XY=              0.0000   XZ=              0.0000   YZ=              0.0000
 Traceless Quadrupole moment (field-independent basis, Debye-Ang):
   XX=             -0.4361   YY=             -0.4361   ZZ=              0.8722
   XY=              0.0000   XZ=              0.0000   YZ=              0.0000
 Octapole moment (field-independent basis, Debye-Ang**2):
  XXX=              0.0000  YYY=              0.0000  ZZZ=             -6.9899  XYY=              0.0000
  XXY=              0.0000  XXZ=             -0.0593  XZZ=              0.0000  YZZ=              0.0000
  YYZ=             -0.0593  XYZ=              0.0000
 Hexadecapole moment (field-independent basis, Debye-Ang**3):
 XXXX=            -10.2169 YYYY=            -10.2169 ZZZZ=            -34.7761 XXXY=              0.0000
 XXXZ=              0.0000 YYYX=              0.0000 YYYZ=              0.0000 ZZZX=              0.0000
 ZZZY=              0.0000 XXYY=             -3.4056 XXZZ=             -8.6040 YYZZ=             -8.6040
 XXYZ=              0.0000 YYXZ=              0.0000 ZZXY=              0.0000
 N-N= 2.402226554925D+01 E-N=-2.657922807513D+02  KE= 9.288714385440D+01
 Symmetry A1   KE= 8.719315980890D+01
 Symmetry A2   KE= 0.000000000000D+00
 Symmetry B1   KE= 2.846992022754D+00
 Symmetry B2   KE= 2.846992022754D+00
  Exact polarizability:   6.899   0.000   6.899   0.000   0.000  19.722
 Approx polarizability:   7.829   0.000   7.829   0.000   0.000  38.861
 Calling FoFJK, ICntrl=    100127 FMM=F ISym2X=1 I1Cent= 0 IOpClX= 0 NMat=1 NMatS=1 NMatT=0.
 Full mass-weighted force constant matrix:
 Low frequencies --- -279.6865 -279.6865    0.0010    0.0013    0.0013  808.4096
 Low frequencies ---  808.4096 2291.7738 3480.6468
 Diagonal vibrational polarizability:
        2.2733304       2.2733304       0.1415163
 Harmonic frequencies (cm**-1), IR intensities (KM/Mole), Raman scattering
 activities (A**4/AMU), depolarization ratios for plane and unpolarized
 incident light, reduced masses (AMU), force constants (mDyne/A),
 and normal coordinates:
                      1                      2                      3
                     PI                     PI                     SG
 Frequencies --    805.4650               805.4650              2291.7738
 Red. masses --      1.3458                 1.3458                 4.6334
 Frc consts  --      0.5144                 0.5144                14.3382
 IR Inten    --     54.8053                54.8053                 3.3412
  Atom  AN      X      Y      Z        X      Y      Z        X      Y      Z
     1   6     0.00   0.16   0.00     0.16   0.00   0.00     0.00   0.00   0.39
     2   1     0.01  -0.98   0.00    -0.98  -0.01   0.00     0.00   0.00   0.84
     3   7     0.00  -0.07   0.00    -0.07   0.00   0.00     0.00   0.00  -0.39
                      4
                     SG
 Frequencies --   3480.6468
 Red. masses --      1.2194
 Frc consts  --      8.7038
 IR Inten    --     56.0009
  Atom  AN      X      Y      Z
     1   6     0.00   0.00  -0.13
     2   1     0.00   0.00   0.99
     3   7     0.00   0.00   0.04

 -------------------
 - Thermochemistry -
 -------------------
 Temperature   298.150 Kelvin.  Pressure   1.00000 Atm.
 Atom     1 has atomic number  6 and mass  12.00000
 Atom     2 has atomic number  1 and mass   1.00783
 Atom     3 has atomic number  7 and mass  14.00307
 Molecular mass:    27.01090 amu.
 Principal axes and moments of inertia in atomic units:
                           1         2         3
     Eigenvalues --     0.00000  40.20492  40.20492
           X            0.00000   1.00000   0.00000
           Y            0.00000   0.00000   1.00000
           Z            1.00000   0.00000   0.00000
 This molecule is a prolate symmetric top.
 Rotational symmetry number  1.
 Rotational temperature (Kelvin)      2.15431
 Rotational constant (GHZ):          44.888563
 Zero-point vibrational energy      44162.2 (Joules/Mol)
                                   10.55503 (Kcal/Mol)
 Vibrational temperatures:   1158.88  1158.88  3297.35  5007.87
          (Kelvin)
 
 Zero-point correction=                           0.016821 (Hartree/Particle)
 Thermal correction to Energy=                    0.019335
 Thermal correction to Enthalpy=                  0.020279
 Thermal correction to Gibbs Free Energy=        -0.002531
 Sum of electronic and zero-point Energies=            -93.374546
 Sum of electronic and thermal Energies=               -93.372032
 Sum of electronic and thermal Enthalpies=             -93.371088
 Sum of electronic and thermal Free Energies=          -93.393897
 
                     E (Thermal)             CV                S
                      KCal/Mol        Cal/Mol-Kelvin    Cal/Mol-Kelvin
 Total                   12.133              6.255             48.007
 Electronic               0.000              0.000              0.000
 Translational            0.889              2.981             35.816
 Rotational               0.592              1.987             11.784
 Vibrational             10.652              1.287              0.406
                       Q            Log10(Q)             Ln(Q)
 Total Bot       0.145886D+02          1.164015          2.680244
 Total V=0       0.795969D+09          8.900896         20.495071
 Vib (Bot)       0.191040D-07         -7.718876        -17.773368
 Vib (V=0)       0.104233D+01          0.018006          0.041459
 Electronic      0.100000D+01          0.000000          0.000000
 Translational   0.551777D+07          6.741764         15.523485
 Rotational      0.138397D+03          2.141127          4.930127
 ***** Axes restored to original set *****
 -------------------------------------------------------------------
 Center     Atomic                   Forces (Hartrees/Bohr)
 Number     Number              X              Y              Z
 -------------------------------------------------------------------
      1        6          -0.058272890    0.000000000    0.000000001
      2        1           0.003477303    0.000000000    0.000000000
      3        7           0.054795586    0.000000000    0.000000000
 -------------------------------------------------------------------
 Cartesian Forces:  Max     0.058272890 RMS     0.026688278

 GradGradGradGradGradGradGradGradGradGradGradGradGradGradGradGradGradGrad
 Berny optimization.
 Search for a local minimum.
 Step number   1 out of a maximum of    2
 All quantities printed in internal units (Hartrees-Bohrs-Radians)
 Second derivative matrix not updated -- analytic derivatives used.
 The second derivative matrix:
                          X1        Y1        Z1        X2        Y2
           X1           1.85416
           Y1           0.00000   0.04165
           Z1           0.00000   0.00000   0.04165
           X2          -0.42395   0.00000   0.00000   0.40508
           Y2           0.00000  -0.03546   0.00000   0.00000   0.01917
           Z2           0.00000   0.00000  -0.03546   0.00000   0.00000
           X3          -1.43020   0.00000   0.00000   0.01887   0.00000
           Y3           0.00000  -0.00619   0.00000   0.00000   0.01629
           Z3           0.00000   0.00000  -0.00619   0.00000   0.00000
                          Z2        X3        Y3        Z3
           Z2           0.01917
           X3           0.00000   1.41133
           Y3           0.00000   0.00000  -0.01010
           Z3           0.01629   0.00000   0.00000  -0.01010
 ITU=  0
     Eigenvalues ---    0.06568   0.06568   0.48583   3.12083
 Angle between quadratic step and forces=  25.27 degrees.
 ClnCor:  largest displacement from symmetrization is 2.73D-12 for atom     2.
 Linear search not attempted -- first point.
 ClnCor:  largest displacement from symmetrization is 6.62D-24 for atom     2.
 TrRot=  0.002754  0.000000  0.000000  0.000000  0.000000  0.000000
 Variable       Old X    -DE/DX   Delta X   Delta X   Delta X     New X
                                 (Linear)    (Quad)   (Total)
    X1       -5.11900  -0.05827   0.00000  -0.01793  -0.01517  -5.13418
    Y1        0.31097   0.00000   0.00000   0.00000   0.00000   0.31097
    Z1        0.00000   0.00000   0.00000   0.00000   0.00000   0.00000
    X2       -7.14101   0.00348   0.00000  -0.01115  -0.00839  -7.14940
    Y2        0.31097   0.00000   0.00000   0.00000   0.00000   0.31097
    Z2        0.00000   0.00000   0.00000   0.00000   0.00000   0.00000
    X3       -2.95224   0.05480   0.00000   0.02081   0.02356  -2.92868
    Y3        0.31097   0.00000   0.00000   0.00000   0.00000   0.31097
    Z3        0.00000   0.00000   0.00000   0.00000   0.00000   0.00000
         Item               Value     Threshold  Converged?
 Maximum Force            0.058273     0.000450     NO 
 RMS     Force            0.026688     0.000300     NO 
 Maximum Displacement     0.023563     0.001800     NO 
 RMS     Displacement     0.009752     0.001200     NO 
 Predicted change in Energy=-1.073035D-03
 GradGradGradGradGradGradGradGradGradGradGradGradGradGradGradGradGradGrad

 1\1\GINC-CCLAB-HP-PRODESK-600-G2-MT\Freq\RB3LYP\6-31G\C1H1N1\GUEST\01-
 May-2018\0\\# freq b3lyp/6-31g geom=connectivity\\Title Card Required\
 \0,1\C,-2.70886073,0.16455696,0.0000000001\H,-3.77886073,0.16455696,0.
 0000000096\N,-1.56226073,0.16455696,-0.0000000101\\Version=EM64L-G09Re
 vD.01\State=1-SG\HF=-93.3913665\RMSD=6.887e-09\RMSF=2.669e-02\ZeroPoin
 t=0.0168205\Thermal=0.0193348\Dipole=-1.1542104,0.,0.\DipoleDeriv=-0.2
 159332,0.,0.,0.,-0.0312133,0.,0.,0.,-0.0312133,0.2395649,0.,0.,0.,0.29
 16973,0.,0.,0.,0.2916973,-0.0236316,0.,0.,0.,-0.260484,0.,0.,0.,-0.260
 484\Polar=19.722218,0.,6.898954,-0.0000001,0.,6.898954\PG=C*V [C*(H1C1
 N1)]\NImag=0\\1.85415581,0.,0.04165071,-0.00000002,0.,0.04165071,-0.42
 395133,0.,0.,0.40507809,0.,-0.03546129,0.,0.,0.01917073,0.,0.,-0.03546
 129,0.,0.,0.01917073,-1.43020448,0.,0.00000001,0.01887323,0.,0.,1.4113
 3125,0.,-0.00618942,0.,0.,0.01629056,0.,0.,-0.01010114,0.00000001,0.,-
 0.00618942,0.,0.,0.01629056,-0.00000001,0.,-0.01010114\\0.05827289,0.,
 0.,-0.00347730,0.,0.,-0.05479559,0.,0.\\\@


 BUT 'GLORY' DOESN'T MEAN 'A NICE KNOCK DOWN ARGUMENT', ALICE OBJECTED.
 WHEN I USE A WORD, HUMPTY DUMPTY SAID, IN A RATHER SCORNFUL TONE,
 IT MEANS JUST WHAT I CHOOSE IT TO MEAN....
 NEITHER MORE NOR LESS....
 THE QUESTION IS, SAID ALICE,
 WHETHER YOU CAN MAKE WORDS MEAN SO MANY DIFFERENT THINGS...
 THE QUESTION IS, SAID HUMPTY DUMPTY,
 WHICH IS TO BE MASTER....
 THAT IS ALL.....

 ALICE THROUGH THE LOOKING GLASS
 Job cpu time:       0 days  0 hours  0 minutes  1.8 seconds.
 File lengths (MBytes):  RWF=      5 Int=      0 D2E=      0 Chk=      1 Scr=      1
 Normal termination of Gaussian 09 at Tue May  1 17:07:40 2018.
